TITLE = "SU2 Simulation"
VARIABLES = "Iteration","CLift","CDrag","CSideForce","CMx","CMy","CMz","CFx","CFy","CFz","CL/CD","Res_Flow[0]","Res_Flow[1]","Res_Flow[2]","Res_Flow[3]","Res_Flow[4]","Linear_Solver_Iterations","CFL_Number","Time(min)"
ZONE T= "Convergence history"
           0, 0.1206288186, 0.2436694280, 0.0000000000, 0.0000000000, 0.0000000000, 0.0371435966, 0.2409799375, 0.1259157328, 0.0000000000, 0.4950511010, -1.0274731862, 1.3963762624, -0.2647674464, 4.4645015705, 0.0000000000, 4.0000000000, 1.0000000000, 0.0026666667
           1, 0.0678170879, 0.0916553598, 0.0000000000, 0.0000000000, 0.0000000000, 0.0134817770, 0.0901541263, 0.0698004004, 0.0000000000, 0.7399140440, -1.0675203404, 1.4691521357, 1.4680192506, 4.4541376112, 0.0000000000, 4.0000000000, 1.0000000000, 0.0055000000
           2, 0.1164242473, 0.1075013338, 0.0000000000, 0.0000000000, 0.0000000000, 0.0152369677, 0.1049359698, 0.1187416707, 0.0000000000, 1.0830028168, -1.1422922273, 1.5181901067, 1.5406618344, 4.3931383098, 0.0000000000, 4.0000000000, 1.0000000000, 0.0085000000
           3, 0.1289447009, 0.0936621532, 0.0000000000, 0.0000000000, 0.0000000000, 0.0237518730, 0.0908269503, 0.1309572447, 0.0000000000, 1.3767001563, -1.1697302022, 1.4251020054, 1.5158699198, 4.3460962327, 0.0000000000, 4.0000000000, 1.0000000000, 0.0113333333
           4, 0.1245515565, 0.0750254938, 0.0000000000, 0.0000000000, 0.0000000000, 0.0192667078, 0.0722905618, 0.1261585891, 0.0000000000, 1.6601231167, -1.1717603970, 1.3469806633, 1.5128455327, 4.3263057671, 0.0000000000, 4.0000000000, 1.0000000000, 0.0141666667
           5, 0.1285812354, 0.0681843817, 0.0000000000, 0.0000000000, 0.0000000000, 0.0195380374, 0.0653631708, 0.1300380710, 0.0000000000, 1.8857872166, -1.1476871957, 1.3350987677, 1.5263336245, 4.3346201461, 0.0000000000, 4.0000000000, 1.0000000000, 0.0170000000
           6, 0.1365036340, 0.0623118554, 0.0000000000, 0.0000000000, 0.0000000000, 0.0202390036, 0.0593192158, 0.1378304758, 0.0000000000, 2.1906526961, -1.1342033488, 1.3502183283, 1.5351265281, 4.3426594150, 0.0000000000, 4.0000000000, 1.0000000000, 0.0200000000
           7, 0.1490014950, 0.0549424464, 0.0000000000, 0.0000000000, 0.0000000000, 0.0197115587, 0.0516789211, 0.1501645998, 0.0000000000, 2.7119559606, -1.1266688134, 1.3233824504, 1.5409607607, 4.3429013533, 0.0000000000, 4.0000000000, 1.0000000000, 0.0228333333
           8, 0.1621405529, 0.0483963844, 0.0000000000, 0.0000000000, 0.0000000000, 0.0207113414, 0.0448477899, 0.1631577294, 0.0000000000, 3.3502616942, -1.1156587357, 1.3117823692, 1.5433692141, 4.3501519003, 0.0000000000, 4.0000000000, 1.0000000000, 0.0258333333
           9, 0.1750372441, 0.0434344093, 0.0000000000, 0.0000000000, 0.0000000000, 0.0227252288, 0.0396056557, 0.1759431066, 0.0000000000, 4.0299211383, -1.1067112972, 1.3326811913, 1.5374085103, 4.3560565366, 0.0000000000, 4.0000000000, 1.0000000000, 0.0286666667
          10, 0.1857184853, 0.0397736824, 0.0000000000, 0.0000000000, 0.0000000000, 0.0241005509, 0.0357127900, 0.1865419477, 0.0000000000, 4.6693812103, -1.1058348589, 1.3442726101, 1.5212545432, 4.3537217474, 0.0000000000, 4.0000000000, 1.0000000000, 0.0316666667
          11, 0.1957072289, 0.0373160776, 0.0000000000, 0.0000000000, 0.0000000000, 0.0257179901, 0.0330378667, 0.1964747018, 0.0000000000, 5.2445819974, -1.1116937353, 1.3493024156, 1.4929584207, 4.3447640323, 0.0000000000, 4.0000000000, 1.0000000000, 0.0345000000
          12, 0.2051965393, 0.0352854999, 0.0000000000, 0.0000000000, 0.0000000000, 0.0275814452, 0.0308007640, 0.2059174572, 0.0000000000, 5.8153218670, -1.1231163202, 1.3442590991, 1.4619552196, 4.3309003211, 0.0000000000, 4.0000000000, 1.0000000000, 0.0373333333
          13, 0.2140672835, 0.0334944940, 0.0000000000, 0.0000000000, 0.0000000000, 0.0291936331, 0.0288166701, 0.2147470198, 0.0000000000, 6.3911185900, -1.1326285210, 1.3355835151, 1.4381545424, 4.3205867231, 0.0000000000, 4.0000000000, 1.0000000000, 0.0401666667
          14, 0.2226587683, 0.0319805092, 0.0000000000, 0.0000000000, 0.0000000000, 0.0306735226, 0.0271156232, 0.2233034327, 0.0000000000, 6.9623271844, -1.1401017575, 1.3234555512, 1.4249012142, 4.3144139929, 0.0000000000, 4.0000000000, 1.0000000000, 0.0431666667
          15, 0.2308984398, 0.0306247350, 0.0000000000, 0.0000000000, 0.0000000000, 0.0321252865, 0.0255804242, 0.2315115673, 0.0000000000, 7.5396061347, -1.1489797429, 1.3043086893, 1.4193782456, 4.3068972874, 0.0000000000, 4.0000000000, 1.0000000000, 0.0460000000
          16, 0.2384263036, 0.0294447988, 0.0000000000, 0.0000000000, 0.0000000000, 0.0333370438, 0.0242365493, 0.2390118995, 0.0000000000, 8.0973996608, -1.1632460107, 1.2874821981, 1.4101324815, 4.2923505891, 0.0000000000, 4.0000000000, 1.0000000000, 0.0488333333
          17, 0.2453448143, 0.0284084414, 0.0000000000, 0.0000000000, 0.0000000000, 0.0343841427, 0.0230495120, 0.2459061557, 0.0000000000, 8.6363349217, -1.1789725745, 1.2767990089, 1.3929960637, 4.2761357319, 0.0000000000, 4.0000000000, 1.0000000000, 0.0516666667
          18, 0.2519545330, 0.0274622882, 0.0000000000, 0.0000000000, 0.0000000000, 0.0353446482, 0.0219593937, 0.2524936613, 0.0000000000, 9.1745644492, -1.1966845134, 1.2661314535, 1.3711838146, 4.2582277644, 0.0000000000, 4.0000000000, 1.0000000000, 0.0546666667
          19, 0.2582398557, 0.0265855960, 0.0000000000, 0.0000000000, 0.0000000000, 0.0361308943, 0.0209457965, 0.2587583634, 0.0000000000, 9.7135251786, -1.2183086481, 1.2552984984, 1.3456648477, 4.2364519497, 0.0000000000, 4.0000000000, 1.0000000000, 0.0575000000
          20, 0.2640864058, 0.0257649553, 0.0000000000, 0.0000000000, 0.0000000000, 0.0367054678, 0.0199978093, 0.2645856199, 0.0000000000, 10.2498297757, -1.2421175904, 1.2533635474, 1.3196682052, 4.2143225024, 0.0000000000, 4.0000000000, 1.0000000000, 0.0603333333
          21, 0.2693990624, 0.0249911968, 0.0000000000, 0.0000000000, 0.0000000000, 0.0370537343, 0.0191083400, 0.2698801328, 0.0000000000, 10.7797583511, -1.2667871097, 1.2446937865, 1.2932381071, 4.1909255317, 0.0000000000, 4.0000000000, 1.0000000000, 0.0633333333
          22, 0.2742867174, 0.0242548666, 0.0000000000, 0.0000000000, 0.0000000000, 0.0372491412, 0.0182655614, 0.2747505617, 0.0000000000, 11.3085230204, -1.2902539109, 1.2269695605, 1.2631925159, 4.1671159394, 0.0000000000, 4.0000000000, 1.0000000000, 0.0660000000
          23, 0.2787300174, 0.0235766773, 0.0000000000, 0.0000000000, 0.0000000000, 0.0372843186, 0.0174906034, 0.2791780098, 0.0000000000, 11.8222773465, -1.3163323542, 1.2033952081, 1.2312337310, 4.1397416546, 0.0000000000, 4.0000000000, 1.0000000000, 0.0690000000
          24, 0.2827543686, 0.0229781837, 0.0000000000, 0.0000000000, 0.0000000000, 0.0371637565, 0.0168044614, 0.2831883472, 0.0000000000, 12.3053402622, -1.3406702576, 1.1790583057, 1.1954055025, 4.1131156862, 0.0000000000, 4.0000000000, 1.0000000000, 0.0720000000
          25, 0.2865222174, 0.0224720814, 0.0000000000, 0.0000000000, 0.0000000000, 0.0369681204, 0.0162162844, 0.2869442587, 0.0000000000, 12.7501414909, -1.3621889088, 1.1528433782, 1.1589240114, 4.0887061451, 0.0000000000, 4.0000000000, 1.0000000000, 0.0748333333
          26, 0.2899857856, 0.0220568438, 0.0000000000, 0.0000000000, 0.0000000000, 0.0366802580, 0.0157255883, 0.2903979443, 0.0000000000, 13.1472021843, -1.3822326096, 1.1254094732, 1.1223213273, 4.0660274201, 0.0000000000, 4.0000000000, 1.0000000000, 0.0776666667
          27, 0.2930485357, 0.0217281845, 0.0000000000, 0.0000000000, 0.0000000000, 0.0362663915, 0.0153301936, 0.2934527960, 0.0000000000, 13.4870235509, -1.4028920554, 1.0968665097, 1.0859538680, 4.0414734895, 0.0000000000, 4.0000000000, 1.0000000000, 0.0805000000
          28, 0.2958391967, 0.0215148352, 0.0000000000, 0.0000000000, 0.0000000000, 0.0358083992, 0.0150560172, 0.2962381386, 0.0000000000, 13.7504747019, -1.4229714414, 1.0639751404, 1.0520805089, 4.0169581660, 0.0000000000, 4.0000000000, 1.0000000000, 0.0833333333
          29, 0.2983247491, 0.0214076191, 0.0000000000, 0.0000000000, 0.0000000000, 0.0352847668, 0.0148946045, 0.2987207606, 0.0000000000, 13.9354473775, -1.4435796990, 1.0308397816, 1.0176744413, 3.9913852206, 0.0000000000, 4.0000000000, 1.0000000000, 0.0863333333
          30, 0.3006154552, 0.0213893167, 0.0000000000, 0.0000000000, 0.0000000000, 0.0347486376, 0.0148263351, 0.3010105224, 0.0000000000, 14.0544674125, -1.4634543199, 0.9966990560, 0.9835763558, 3.9659941813, 0.0000000000, 4.0000000000, 1.0000000000, 0.0891666667
          31, 0.3023936521, 0.0214452718, 0.0000000000, 0.0000000000, 0.0000000000, 0.0340909981, 0.0148434857, 0.3027895168, 0.0000000000, 14.1007143473, -1.4820917484, 0.9642849131, 0.9505156731, 3.9424267374, 0.0000000000, 4.0000000000, 1.0000000000, 0.0921666667
          32, 0.3038969823, 0.0215746006, 0.0000000000, 0.0000000000, 0.0000000000, 0.0334538394, 0.0149399887, 0.3042953105, 0.0000000000, 14.0858682878, -1.4985835263, 0.9367873032, 0.9175501631, 3.9232393302, 0.0000000000, 4.0000000000, 1.0000000000, 0.0950000000
          33, 0.3052451965, 0.0217649044, 0.0000000000, 0.0000000000, 0.0000000000, 0.0328849770, 0.0151008361, 0.3056473553, 0.0000000000, 14.0246513458, -1.5146936340, 0.9125238154, 0.8857850950, 3.9049378245, 0.0000000000, 4.0000000000, 1.0000000000, 0.0980000000
          34, 0.3063016586, 0.0219776390, 0.0000000000, 0.0000000000, 0.0000000000, 0.0323284655, 0.0152904735, 0.3067082067, 0.0000000000, 13.9369683229, -1.5309534780, 0.8930043886, 0.8564703451, 3.8866668347, 0.0000000000, 4.0000000000, 1.0000000000, 0.1008333333
